 # Fcc Cu oriented X=[100] Y=[010] Z=[001].
 
       10800  atoms
           2  atom types
 
      0.00000000      36.35285468  xlo xhi
      0.00000000      36.35285468  ylo yhi
      0.00000000      98.15270765  zlo zhi
 
Masses
 
           1   26.98153860    # Al
           2   63.54600000    # Cu
 
Atoms # atomic
 
         1    2        0.00000000       0.00000000       0.00000000
         2    2        1.81764273       1.81764273       0.00000000
         3    2        0.00000000       1.81764273       1.81764273
         4    2        1.81764273       0.00000000       1.81764273
         5    2        3.63528547       0.00000000       0.00000000
         6    2        5.45292820       1.81764273       0.00000000
         7    2        3.63528547       1.81764273       1.81764273
         8    2        5.45292820       0.00000000       1.81764273
         9    2        7.27057094       0.00000000       0.00000000
        10    2        9.08821367       1.81764273       0.00000000
        11    2        7.27057094       1.81764273       1.81764273
        12    2        9.08821367       0.00000000       1.81764273
        13    2       10.90585641       0.00000000       0.00000000
        14    2       12.72349914       1.81764273       0.00000000
        15    2       10.90585641       1.81764273       1.81764273
        16    2       12.72349914       0.00000000       1.81764273
        17    2       14.54114187       0.00000000       0.00000000
        18    2       16.35878461       1.81764273       0.00000000
        19    2       14.54114187       1.81764273       1.81764273
        20    2       16.35878461       0.00000000       1.81764273
        21    2       18.17642734       0.00000000       0.00000000
        22    2       19.99407008       1.81764273       0.00000000
        23    2       18.17642734       1.81764273       1.81764273
        24    2       19.99407008       0.00000000       1.81764273
        25    2       21.81171281       0.00000000       0.00000000
        26    2       23.62935555       1.81764273       0.00000000
        27    2       21.81171281       1.81764273       1.81764273
        28    2       23.62935555       0.00000000       1.81764273
        29    2       25.44699828       0.00000000       0.00000000
        30    2       27.26464101       1.81764273       0.00000000
        31    2       25.44699828       1.81764273       1.81764273
        32    2       27.26464101       0.00000000       1.81764273
        33    2       29.08228375       0.00000000       0.00000000
        34    2       30.89992648       1.81764273       0.00000000
        35    2       29.08228375       1.81764273       1.81764273
        36    2       30.89992648       0.00000000       1.81764273
        37    2       32.71756922       0.00000000       0.00000000
        38    2       34.53521195       1.81764273       0.00000000
        39    2       32.71756922       1.81764273       1.81764273
        40    2       34.53521195       0.00000000       1.81764273
        41    2        0.00000000       3.63528547       0.00000000
        42    2        1.81764273       5.45292820       0.00000000
        43    2        0.00000000       5.45292820       1.81764273
        44    2        1.81764273       3.63528547       1.81764273
        45    2        3.63528547       3.63528547       0.00000000
        46    2        5.45292820       5.45292820       0.00000000
        47    2        3.63528547       5.45292820       1.81764273
        48    2        5.45292820       3.63528547       1.81764273
        49    2        7.27057094       3.63528547       0.00000000
        50    2        9.08821367       5.45292820       0.00000000
        51    2        7.27057094       5.45292820       1.81764273
        52    2        9.08821367       3.63528547       1.81764273
        53    2       10.90585641       3.63528547       0.00000000
        54    2       12.72349914       5.45292820       0.00000000
        55    2       10.90585641       5.45292820       1.81764273
        56    2       12.72349914       3.63528547       1.81764273
        57    2       14.54114187       3.63528547       0.00000000
        58    2       16.35878461       5.45292820       0.00000000
        59    2       14.54114187       5.45292820       1.81764273
        60    2       16.35878461       3.63528547       1.81764273
        61    2       18.17642734       3.63528547       0.00000000
        62    2       19.99407008       5.45292820       0.00000000
        63    2       18.17642734       5.45292820       1.81764273
        64    2       19.99407008       3.63528547       1.81764273
        65    2       21.81171281       3.63528547       0.00000000
        66    2       23.62935555       5.45292820       0.00000000
        67    2       21.81171281       5.45292820       1.81764273
        68    2       23.62935555       3.63528547       1.81764273
        69    2       25.44699828       3.63528547       0.00000000
        70    2       27.26464101       5.45292820       0.00000000
        71    2       25.44699828       5.45292820       1.81764273
        72    2       27.26464101       3.63528547       1.81764273
        73    2       29.08228375       3.63528547       0.00000000
        74    2       30.89992648       5.45292820       0.00000000
        75    2       29.08228375       5.45292820       1.81764273
        76    2       30.89992648       3.63528547       1.81764273
        77    2       32.71756922       3.63528547       0.00000000
        78    2       34.53521195       5.45292820       0.00000000
        79    2       32.71756922       5.45292820       1.81764273
        80    2       34.53521195       3.63528547       1.81764273
        81    2        0.00000000       7.27057094       0.00000000
        82    2        1.81764273       9.08821367       0.00000000
        83    2        0.00000000       9.08821367       1.81764273
        84    2        1.81764273       7.27057094       1.81764273
        85    2        3.63528547       7.27057094       0.00000000
        86    2        5.45292820       9.08821367       0.00000000
        87    2        3.63528547       9.08821367       1.81764273
        88    2        5.45292820       7.27057094       1.81764273
        89    2        7.27057094       7.27057094       0.00000000
        90    2        9.08821367       9.08821367       0.00000000
        91    2        7.27057094       9.08821367       1.81764273
        92    2        9.08821367       7.27057094       1.81764273
        93    2       10.90585641       7.27057094       0.00000000
        94    2       12.72349914       9.08821367       0.00000000
        95    2       10.90585641       9.08821367       1.81764273
        96    2       12.72349914       7.27057094       1.81764273
        97    2       14.54114187       7.27057094       0.00000000
        98    2       16.35878461       9.08821367       0.00000000
        99    2       14.54114187       9.08821367       1.81764273
       100    2       16.35878461       7.27057094       1.81764273
       101    2       18.17642734       7.27057094       0.00000000
       102    2       19.99407008       9.08821367       0.00000000
       103    2       18.17642734       9.08821367       1.81764273
       104    2       19.99407008       7.27057094       1.81764273
       105    2       21.81171281       7.27057094       0.00000000
       106    2       23.62935555       9.08821367       0.00000000
       107    2       21.81171281       9.08821367       1.81764273
       108    2       23.62935555       7.27057094       1.81764273
       109    2       25.44699828       7.27057094       0.00000000
       110    2       27.26464101       9.08821367       0.00000000
       111    2       25.44699828       9.08821367       1.81764273
       112    2       27.26464101       7.27057094       1.81764273
       113    2       29.08228375       7.27057094       0.00000000
       114    2       30.89992648       9.08821367       0.00000000
       115    2       29.08228375       9.08821367       1.81764273
       116    2       30.89992648       7.27057094       1.81764273
       117    2       32.71756922       7.27057094       0.00000000
       118    2       34.53521195       9.08821367       0.00000000
       119    2       32.71756922       9.08821367       1.81764273
       120    2       34.53521195       7.27057094       1.81764273
       121    2        0.00000000      10.90585641       0.00000000
       122    2        1.81764273      12.72349914       0.00000000
       123    2        0.00000000      12.72349914       1.81764273
       124    2        1.81764273      10.90585641       1.81764273
       125    2        3.63528547      10.90585641       0.00000000
       126    2        5.45292820      12.72349914       0.00000000
       127    2        3.63528547      12.72349914       1.81764273
       128    2        5.45292820      10.90585641       1.81764273
       129    2        7.27057094      10.90585641       0.00000000
       130    2        9.08821367      12.72349914       0.00000000
       131    2        7.27057094      12.72349914       1.81764273
       132    2        9.08821367      10.90585641       1.81764273
       133    2       10.90585641      10.90585641       0.00000000
       134    2       12.72349914      12.72349914       0.00000000
       135    2       10.90585641      12.72349914       1.81764273
       136    2       12.72349914      10.90585641       1.81764273
       137    2       14.54114187      10.90585641       0.00000000
       138    2       16.35878461      12.72349914       0.00000000
       139    2       14.54114187      12.72349914       1.81764273
       140    2       16.35878461      10.90585641       1.81764273
       141    2       18.17642734      10.90585641       0.00000000
       142    2       19.99407008      12.72349914       0.00000000
       143    2       18.17642734      12.72349914       1.81764273
       144    2       19.99407008      10.90585641       1.81764273
       145    2       21.81171281      10.90585641       0.00000000
       146    2       23.62935555      12.72349914       0.00000000
       147    2       21.81171281      12.72349914       1.81764273
       148    2       23.62935555      10.90585641       1.81764273
       149    2       25.44699828      10.90585641       0.00000000
       150    2       27.26464101      12.72349914       0.00000000
       151    2       25.44699828      12.72349914       1.81764273
       152    2       27.26464101      10.90585641       1.81764273
       153    2       29.08228375      10.90585641       0.00000000
       154    2       30.89992648      12.72349914       0.00000000
       155    2       29.08228375      12.72349914       1.81764273
       156    2       30.89992648      10.90585641       1.81764273
       157    2       32.71756922      10.90585641       0.00000000
       158    2       34.53521195      12.72349914       0.00000000
       159    2       32.71756922      12.72349914       1.81764273
       160    2       34.53521195      10.90585641       1.81764273
       161    2        0.00000000      14.54114187       0.00000000
       162    2        1.81764273      16.35878461       0.00000000
       163    2        0.00000000      16.35878461       1.81764273
       164    2        1.81764273      14.54114187       1.81764273
       165    2        3.63528547      14.54114187       0.00000000
       166    2        5.45292820      16.35878461       0.00000000
       167    2        3.63528547      16.35878461       1.81764273
       168    2        5.45292820      14.54114187       1.81764273
       169    2        7.27057094      14.54114187       0.00000000
       170    2        9.08821367      16.35878461       0.00000000
       171    2        7.27057094      16.35878461       1.81764273
       172    2        9.08821367      14.54114187       1.81764273
       173    2       10.90585641      14.54114187       0.00000000
       174    2       12.72349914      16.35878461       0.00000000
       175    2       10.90585641      16.35878461       1.81764273
       176    2       12.72349914      14.54114187       1.81764273
       177    2       14.54114187      14.54114187       0.00000000
       178    2       16.35878461      16.35878461       0.00000000
       179    2       14.54114187      16.35878461       1.81764273
       180    2       16.35878461      14.54114187       1.81764273
       181    2       18.17642734      14.54114187       0.00000000
       182    2       19.99407008      16.35878461       0.00000000
       183    2       18.17642734      16.35878461       1.81764273
       184    2       19.99407008      14.54114187       1.81764273
       185    2       21.81171281      14.54114187       0.00000000
       186    2       23.62935555      16.35878461       0.00000000
       187    2       21.81171281      16.35878461       1.81764273
       188    2       23.62935555      14.54114187       1.81764273
       189    2       25.44699828      14.54114187       0.00000000
       190    2       27.26464101      16.35878461       0.00000000
       191    2       25.44699828      16.35878461       1.81764273
       192    2       27.26464101      14.54114187       1.81764273
       193    2       29.08228375      14.54114187       0.00000000
       194    2       30.89992648      16.35878461       0.00000000
       195    2       29.08228375      16.35878461       1.81764273
       196    2       30.89992648      14.54114187       1.81764273
       197    2       32.71756922      14.54114187       0.00000000
       198    2       34.53521195      16.35878461       0.00000000
       199    2       32.71756922      16.35878461       1.81764273
       200    2       34.53521195      14.54114187       1.81764273
       201    2        0.00000000      18.17642734       0.00000000
       202    2        1.81764273      19.99407008       0.00000000
       203    2        0.00000000      19.99407008       1.81764273
       204    2        1.81764273      18.17642734       1.81764273
       205    2        3.63528547      18.17642734       0.00000000
       206    2        5.45292820      19.99407008       0.00000000
       207    2        3.63528547      19.99407008       1.81764273
       208    2        5.45292820      18.17642734       1.81764273
       209    2        7.27057094      18.17642734       0.00000000
       210    2        9.08821367      19.99407008       0.00000000
       211    2        7.27057094      19.99407008       1.81764273
       212    2        9.08821367      18.17642734       1.81764273
       213    2       10.90585641      18.17642734       0.00000000
       214    2       12.72349914      19.99407008       0.00000000
       215    2       10.90585641      19.99407008       1.81764273
       216    2       12.72349914      18.17642734       1.81764273
       217    2       14.54114187      18.17642734       0.00000000
       218    2       16.35878461      19.99407008       0.00000000
       219    2       14.54114187      19.99407008       1.81764273
       220    2       16.35878461      18.17642734       1.81764273
       221    2       18.17642734      18.17642734       0.00000000
       222    2       19.99407008      19.99407008       0.00000000
       223    2       18.17642734      19.99407008       1.81764273
       224    2       19.99407008      18.17642734       1.81764273
       225    2       21.81171281      18.17642734       0.00000000
       226    2       23.62935555      19.99407008       0.00000000
       227    2       21.81171281      19.99407008       1.81764273
       228    2       23.62935555      18.17642734       1.81764273
       229    2       25.44699828      18.17642734       0.00000000
       230    2       27.26464101      19.99407008       0.00000000
       231    2       25.44699828      19.99407008       1.81764273
       232    2       27.26464101      18.17642734       1.81764273
       233    2       29.08228375      18.17642734       0.00000000
       234    2       30.89992648      19.99407008       0.00000000
       235    2       29.08228375      19.99407008       1.81764273
       236    2       30.89992648      18.17642734       1.81764273
       237    2       32.71756922      18.17642734       0.00000000
       238    2       34.53521195      19.99407008       0.00000000
       239    2       32.71756922      19.99407008       1.81764273
       240    2       34.53521195      18.17642734       1.81764273
       241    2        0.00000000      21.81171281       0.00000000
       242    2        1.81764273      23.62935555       0.00000000
       243    2        0.00000000      23.62935555       1.81764273
       244    2        1.81764273      21.81171281       1.81764273
       245    2        3.63528547      21.81171281       0.00000000
       246    2        5.45292820      23.62935555       0.00000000
       247    2        3.63528547      23.62935555       1.81764273
       248    2        5.45292820      21.81171281       1.81764273
       249    2        7.27057094      21.81171281       0.00000000
       250    2        9.08821367      23.62935555       0.00000000
       251    2        7.27057094      23.62935555       1.81764273
       252    2        9.08821367      21.81171281       1.81764273
       253    2       10.90585641      21.81171281       0.00000000
       254    2       12.72349914      23.62935555       0.00000000
       255    2       10.90585641      23.62935555       1.81764273
       256    2       12.72349914      21.81171281       1.81764273
       257    2       14.54114187      21.81171281       0.00000000
       258    2       16.35878461      23.62935555       0.00000000
       259    2       14.54114187      23.62935555       1.81764273
       260    2       16.35878461      21.81171281       1.81764273
       261    2       18.17642734      21.81171281       0.00000000
       262    2       19.99407008      23.62935555       0.00000000
       263    2       18.17642734      23.62935555       1.81764273
       264    2       19.99407008      21.81171281       1.81764273
       265    2       21.81171281      21.81171281       0.00000000
       266    2       23.62935555      23.62935555       0.00000000
       267    2       21.81171281      23.62935555       1.81764273
       268    2       23.62935555      21.81171281       1.81764273
       269    2       25.44699828      21.81171281       0.00000000
       270    2       27.26464101      23.62935555       0.00000000
       271    2       25.44699828      23.62935555       1.81764273
       272    2       27.26464101      21.81171281       1.81764273
       273    2       29.08228375      21.81171281       0.00000000
       274    2       30.89992648      23.62935555       0.00000000
       275    2       29.08228375      23.62935555       1.81764273
       276    2       30.89992648      21.81171281       1.81764273
       277    2       32.71756922      21.81171281       0.00000000
       278    2       34.53521195      23.62935555       0.00000000
       279    2       32.71756922      23.62935555       1.81764273
       280    2       34.53521195      21.81171281       1.81764273
       281    2        0.00000000      25.44699828       0.00000000
       282    2        1.81764273      27.26464101       0.00000000
       283    2        0.00000000      27.26464101       1.81764273
       284    2        1.81764273      25.44699828       1.81764273
       285    2        3.63528547      25.44699828       0.00000000
       286    2        5.45292820      27.26464101       0.00000000
       287    2        3.63528547      27.26464101       1.81764273
       288    2        5.45292820      25.44699828       1.81764273
       289    2        7.27057094      25.44699828       0.00000000
       290    2        9.08821367      27.26464101       0.00000000
       291    2        7.27057094      27.26464101       1.81764273
       292    2        9.08821367      25.44699828       1.81764273
       293    2       10.90585641      25.44699828       0.00000000
       294    2       12.72349914      27.26464101       0.00000000
       295    2       10.90585641      27.26464101       1.81764273
       296    2       12.72349914      25.44699828       1.81764273
       297    2       14.54114187      25.44699828       0.00000000
       298    2       16.35878461      27.26464101       0.00000000
       299    2       14.54114187      27.26464101       1.81764273
       300    2       16.35878461      25.44699828       1.81764273
       301    2       18.17642734      25.44699828       0.00000000
       302    2       19.99407008      27.26464101       0.00000000
       303    2       18.17642734      27.26464101       1.81764273
       304    2       19.99407008      25.44699828       1.81764273
       305    2       21.81171281      25.44699828       0.00000000
       306    2       23.62935555      27.26464101       0.00000000
       307    2       21.81171281      27.26464101       1.81764273
       308    2       23.62935555      25.44699828       1.81764273
       309    2       25.44699828      25.44699828       0.00000000
       310    2       27.26464101      27.26464101       0.00000000
       311    2       25.44699828      27.26464101       1.81764273
       312    2       27.26464101      25.44699828       1.81764273
       313    2       29.08228375      25.44699828       0.00000000
       314    2       30.89992648      27.26464101       0.00000000
       315    2       29.08228375      27.26464101       1.81764273
       316    2       30.89992648      25.44699828       1.81764273
       317    2       32.71756922      25.44699828       0.00000000
       318    2       34.53521195      27.26464101       0.00000000
       319    2       32.71756922      27.26464101       1.81764273
       320    2       34.53521195      25.44699828       1.81764273
       321    2        0.00000000      29.08228375       0.00000000
       322    2        1.81764273      30.89992648       0.00000000
       323    2        0.00000000      30.89992648       1.81764273
       324    2        1.81764273      29.08228375       1.81764273
       325    2        3.63528547      29.08228375       0.00000000
       326    2        5.45292820      30.89992648       0.00000000
       327    2        3.63528547      30.89992648       1.81764273
       328    2        5.45292820      29.08228375       1.81764273
       329    2        7.27057094      29.08228375       0.00000000
       330    2        9.08821367      30.89992648       0.00000000
       331    2        7.27057094      30.89992648       1.81764273
       332    2        9.08821367      29.08228375       1.81764273
       333    2       10.90585641      29.08228375       0.00000000
       334    2       12.72349914      30.89992648       0.00000000
       335    2       10.90585641      30.89992648       1.81764273
       336    2       12.72349914      29.08228375       1.81764273
       337    2       14.54114187      29.08228375       0.00000000
       338    2       16.35878461      30.89992648       0.00000000
       339    2       14.54114187      30.89992648       1.81764273
       340    2       16.35878461      29.08228375       1.81764273
       341    2       18.17642734      29.08228375       0.00000000
       342    2       19.99407008      30.89992648       0.00000000
       343    2       18.17642734      30.89992648       1.81764273
       344    2       19.99407008      29.08228375       1.81764273
       345    2       21.81171281      29.08228375       0.00000000
       346    2       23.62935555      30.89992648       0.00000000
       347    2       21.81171281      30.89992648       1.81764273
       348    2       23.62935555      29.08228375       1.81764273
       349    2       25.44699828      29.08228375       0.00000000
       350    2       27.26464101      30.89992648       0.00000000
       351    2       25.44699828      30.89992648       1.81764273
       352    2       27.26464101      29.08228375       1.81764273
       353    2       29.08228375      29.08228375       0.00000000
       354    2       30.89992648      30.89992648       0.00000000
       355    2       29.08228375      30.89992648       1.81764273
       356    2       30.89992648      29.08228375       1.81764273
       357    2       32.71756922      29.08228375       0.00000000
       358    2       34.53521195      30.89992648       0.00000000
       359    2       32.71756922      30.89992648       1.81764273
       360    2       34.53521195      29.08228375       1.81764273
       361    2        0.00000000      32.71756922       0.00000000
       362    2        1.81764273      34.53521195       0.00000000
       363    2        0.00000000      34.53521195       1.81764273
       364    2        1.81764273      32.71756922       1.81764273
       365    2        3.63528547      32.71756922       0.00000000
       366    2        5.45292820      34.53521195       0.00000000
       367    2        3.63528547      34.53521195       1.81764273
       368    2        5.45292820      32.71756922       1.81764273
       369    2        7.27057094      32.71756922       0.00000000
       370    2        9.08821367      34.53521195       0.00000000
       371    2        7.27057094      34.53521195       1.81764273
       372    2        9.08821367      32.71756922       1.81764273
       373    2       10.90585641      32.71756922       0.00000000
       374    2       12.72349914      34.53521195       0.00000000
       375    2       10.90585641      34.53521195       1.81764273
       376    2       12.72349914      32.71756922       1.81764273
       377    2       14.54114187      32.71756922       0.00000000
       378    2       16.35878461      34.53521195       0.00000000
       379    2       14.54114187      34.53521195       1.81764273
       380    2       16.35878461      32.71756922       1.81764273
       381    2       18.17642734      32.71756922       0.00000000
       382    2       19.99407008      34.53521195       0.00000000
       383    2       18.17642734      34.53521195       1.81764273
       384    2       19.99407008      32.71756922       1.81764273
       385    2       21.81171281      32.71756922       0.00000000
       386    2       23.62935555      34.53521195       0.00000000
       387    2       21.81171281      34.53521195       1.81764273
       388    2       23.62935555      32.71756922       1.81764273
       389    2       25.44699828      32.71756922       0.00000000
       390    2       27.26464101      34.53521195       0.00000000
       391    2       25.44699828      34.53521195       1.81764273
       392    2       27.26464101      32.71756922       1.81764273
       393    2       29.08228375      32.71756922       0.00000000
       394    2       30.89992648      34.53521195       0.00000000
       395    2       29.08228375      34.53521195       1.81764273
       396    2       30.89992648      32.71756922       1.81764273
       397    2       32.71756922      32.71756922       0.00000000
       398    2       34.53521195      34.53521195       0.00000000
       399    2       32.71756922      34.53521195       1.81764273
       400    2       34.53521195      32.71756922       1.81764273
       401    2        0.00000000       0.00000000       3.63528547
       402    2        1.81764273       1.81764273       3.63528547
       403    2        0.00000000       1.81764273       5.45292820
       404    2        1.81764273       0.00000000       5.45292820
       405    2        3.63528547       0.00000000       3.63528547
       406    2        5.45292820       1.81764273       3.63528547
       407    2        3.63528547       1.81764273       5.45292820
       408    2        5.45292820       0.00000000       5.45292820
       409    2        7.27057094       0.00000000       3.63528547
       410    2        9.08821367       1.81764273       3.63528547
       411    2        7.27057094       1.81764273       5.45292820
       412    2        9.08821367       0.00000000       5.45292820
       413    2       10.90585641       0.00000000       3.63528547
       414    2       12.72349914       1.81764273       3.63528547
       415    2       10.90585641       1.81764273       5.45292820
       416    2       12.72349914       0.00000000       5.45292820
       417    2       14.54114187       0.00000000       3.63528547
       418    2       16.35878461       1.81764273       3.63528547
       419    2       14.54114187       1.81764273       5.45292820
       420    2       16.35878461       0.00000000       5.45292820
       421    2       18.17642734       0.00000000       3.63528547
       422    2       19.99407008       1.81764273       3.63528547
       423    2       18.17642734       1.81764273       5.45292820
       424    2       19.99407008       0.00000000       5.45292820
       425    2       21.81171281       0.00000000       3.63528547
       426    2       23.62935555       1.81764273       3.63528547
       427    2       21.81171281       1.81764273       5.45292820
       428    2       23.62935555       0.00000000       5.45292820
       429    2       25.44699828       0.00000000       3.63528547
       430    2       27.26464101       1.81764273       3.63528547
       431    2       25.44699828       1.81764273       5.45292820
       432    2       27.26464101       0.00000000       5.45292820
       433    2       29.08228375       0.00000000       3.63528547
       434    2       30.89992648       1.81764273       3.63528547
       435    2       29.08228375       1.81764273       5.45292820
       436    2       30.89992648       0.00000000       5.45292820