 # Fcc Al oriented X=[100] Y=[010] Z=[001].
 
        8100  atoms
           2  atom types
 
      0.00000000      36.77422864  xlo xhi
      0.00000000      36.77422864  ylo yhi
      0.00000000     102.15063512  zlo zhi
 
Masses
 
           1   26.98153860    # Al
           2   63.54600000    # Cu
 
Atoms # atomic
 
         1    1        0.00000000       0.00000000       0.00000000
         2    1        2.04301270       2.04301270       0.00000000
         3    1        0.00000000       2.04301270       2.04301270
         4    1        2.04301270       0.00000000       2.04301270
         5    1        4.08602540       0.00000000       0.00000000
         6    1        6.12903811       2.04301270       0.00000000
         7    1        4.08602540       2.04301270       2.04301270
         8    1        6.12903811       0.00000000       2.04301270
         9    1        8.17205081       0.00000000       0.00000000
        10    1       10.21506351       2.04301270       0.00000000
        11    1        8.17205081       2.04301270       2.04301270
        12    1       10.21506351       0.00000000       2.04301270
        13    1       12.25807621       0.00000000       0.00000000
        14    1       14.30108892       2.04301270       0.00000000
        15    1       12.25807621       2.04301270       2.04301270
        16    1       14.30108892       0.00000000       2.04301270
        17    1       16.34410162       0.00000000       0.00000000
        18    1       18.38711432       2.04301270       0.00000000
        19    1       16.34410162       2.04301270       2.04301270
        20    1       18.38711432       0.00000000       2.04301270
        21    1       20.43012702       0.00000000       0.00000000
        22    1       22.47313973       2.04301270       0.00000000
        23    1       20.43012702       2.04301270       2.04301270
        24    1       22.47313973       0.00000000       2.04301270
        25    1       24.51615243       0.00000000       0.00000000
        26    1       26.55916513       2.04301270       0.00000000
        27    1       24.51615243       2.04301270       2.04301270
        28    1       26.55916513       0.00000000       2.04301270
        29    1       28.60217783       0.00000000       0.00000000
        30    1       30.64519054       2.04301270       0.00000000
        31    1       28.60217783       2.04301270       2.04301270
        32    1       30.64519054       0.00000000       2.04301270
        33    1       32.68820324       0.00000000       0.00000000
        34    1       34.73121594       2.04301270       0.00000000
        35    1       32.68820324       2.04301270       2.04301270
        36    1       34.73121594       0.00000000       2.04301270
        37    1        0.00000000       4.08602540       0.00000000
        38    1        2.04301270       6.12903811       0.00000000
        39    1        0.00000000       6.12903811       2.04301270
        40    1        2.04301270       4.08602540       2.04301270
        41    1        4.08602540       4.08602540       0.00000000
        42    1        6.12903811       6.12903811       0.00000000
        43    1        4.08602540       6.12903811       2.04301270
        44    1        6.12903811       4.08602540       2.04301270
        45    1        8.17205081       4.08602540       0.00000000
        46    1       10.21506351       6.12903811       0.00000000
        47    1        8.17205081       6.12903811       2.04301270
        48    1       10.21506351       4.08602540       2.04301270
        49    1       12.25807621       4.08602540       0.00000000
        50    1       14.30108892       6.12903811       0.00000000
        51    1       12.25807621       6.12903811       2.04301270
        52    1       14.30108892       4.08602540       2.04301270
        53    1       16.34410162       4.08602540       0.00000000
        54    1       18.38711432       6.12903811       0.00000000
        55    1       16.34410162       6.12903811       2.04301270
        56    1       18.38711432       4.08602540       2.04301270
        57    1       20.43012702       4.08602540       0.00000000
        58    1       22.47313973       6.12903811       0.00000000
        59    1       20.43012702       6.12903811       2.04301270
        60    1       22.47313973       4.08602540       2.04301270
        61    1       24.51615243       4.08602540       0.00000000
        62    1       26.55916513       6.12903811       0.00000000
        63    1       24.51615243       6.12903811       2.04301270
        64    1       26.55916513       4.08602540       2.04301270
        65    1       28.60217783       4.08602540       0.00000000
        66    1       30.64519054       6.12903811       0.00000000
        67    1       28.60217783       6.12903811       2.04301270
        68    1       30.64519054       4.08602540       2.04301270
        69    1       32.68820324       4.08602540       0.00000000
        70    1       34.73121594       6.12903811       0.00000000
        71    1       32.68820324       6.12903811       2.04301270
        72    1       34.73121594       4.08602540       2.04301270
        73    1        0.00000000       8.17205081       0.00000000
        74    1        2.04301270      10.21506351       0.00000000
        75    1        0.00000000      10.21506351       2.04301270
        76    1        2.04301270       8.17205081       2.04301270
        77    1        4.08602540       8.17205081       0.00000000
        78    1        6.12903811      10.21506351       0.00000000
        79    1        4.08602540      10.21506351       2.04301270
        80    1        6.12903811       8.17205081       2.04301270
        81    1        8.17205081       8.17205081       0.00000000
        82    1       10.21506351      10.21506351       0.00000000
        83    1        8.17205081      10.21506351       2.04301270
        84    1       10.21506351       8.17205081       2.04301270
        85    1       12.25807621       8.17205081       0.00000000
        86    1       14.30108892      10.21506351       0.00000000
        87    1       12.25807621      10.21506351       2.04301270
        88    1       14.30108892       8.17205081       2.04301270
        89    1       16.34410162       8.17205081       0.00000000
        90    1       18.38711432      10.21506351       0.00000000
        91    1       16.34410162      10.21506351       2.04301270
        92    1       18.38711432       8.17205081       2.04301270
        93    1       20.43012702       8.17205081       0.00000000
        94    1       22.47313973      10.21506351       0.00000000
        95    1       20.43012702      10.21506351       2.04301270
        96    1       22.47313973       8.17205081       2.04301270
        97    1       24.51615243       8.17205081       0.00000000
        98    1       26.55916513      10.21506351       0.00000000
        99    1       24.51615243      10.21506351       2.04301270
       100    1       26.55916513       8.17205081       2.04301270
       101    1       28.60217783       8.17205081       0.00000000
       102    1       30.64519054      10.21506351       0.00000000
       103    1       28.60217783      10.21506351       2.04301270
       104    1       30.64519054       8.17205081       2.04301270
       105    1       32.68820324       8.17205081       0.00000000
       106    1       34.73121594      10.21506351       0.00000000
       107    1       32.68820324      10.21506351       2.04301270
       108    1       34.73121594       8.17205081       2.04301270
       109    1        0.00000000      12.25807621       0.00000000
       110    1        2.04301270      14.30108892       0.00000000
       111    1        0.00000000      14.30108892       2.04301270
       112    1        2.04301270      12.25807621       2.04301270
       113    1        4.08602540      12.25807621       0.00000000
       114    1        6.12903811      14.30108892       0.00000000
       115    1        4.08602540      14.30108892       2.04301270
       116    1        6.12903811      12.25807621       2.04301270
       117    1        8.17205081      12.25807621       0.00000000
       118    1       10.21506351      14.30108892       0.00000000
       119    1        8.17205081      14.30108892       2.04301270
       120    1       10.21506351      12.25807621       2.04301270
       121    1       12.25807621      12.25807621       0.00000000
       122    1       14.30108892      14.30108892       0.00000000
       123    1       12.25807621      14.30108892       2.04301270
       124    1       14.30108892      12.25807621       2.04301270
       125    1       16.34410162      12.25807621       0.00000000
       126    1       18.38711432      14.30108892       0.00000000
       127    1       16.34410162      14.30108892       2.04301270
       128    1       18.38711432      12.25807621       2.04301270
       129    1       20.43012702      12.25807621       0.00000000
       130    1       22.47313973      14.30108892       0.00000000
       131    1       20.43012702      14.30108892       2.04301270
       132    1       22.47313973      12.25807621       2.04301270
       133    1       24.51615243      12.25807621       0.00000000
       134    1       26.55916513      14.30108892       0.00000000
       135    1       24.51615243      14.30108892       2.04301270
       136    1       26.55916513      12.25807621       2.04301270
       137    1       28.60217783      12.25807621       0.00000000
       138    1       30.64519054      14.30108892       0.00000000
       139    1       28.60217783      14.30108892       2.04301270
       140    1       30.64519054      12.25807621       2.04301270
       141    1       32.68820324      12.25807621       0.00000000
       142    1       34.73121594      14.30108892       0.00000000
       143    1       32.68820324      14.30108892       2.04301270
       144    1       34.73121594      12.25807621       2.04301270
       145    1        0.00000000      16.34410162       0.00000000
       146    1        2.04301270      18.38711432       0.00000000
       147    1        0.00000000      18.38711432       2.04301270
       148    1        2.04301270      16.34410162       2.04301270
       149    1        4.08602540      16.34410162       0.00000000
       150    1        6.12903811      18.38711432       0.00000000
       151    1        4.08602540      18.38711432       2.04301270
       152    1        6.12903811      16.34410162       2.04301270
       153    1        8.17205081      16.34410162       0.00000000
       154    1       10.21506351      18.38711432       0.00000000
       155    1        8.17205081      18.38711432       2.04301270
       156    1       10.21506351      16.34410162       2.04301270
       157    1       12.25807621      16.34410162       0.00000000
       158    1       14.30108892      18.38711432       0.00000000
       159    1       12.25807621      18.38711432       2.04301270
       160    1       14.30108892      16.34410162       2.04301270
       161    1       16.34410162      16.34410162       0.00000000
       162    1       18.38711432      18.38711432       0.00000000
       163    1       16.34410162      18.38711432       2.04301270
       164    1       18.38711432      16.34410162       2.04301270
       165    1       20.43012702      16.34410162       0.00000000
       166    1       22.47313973      18.38711432       0.00000000
       167    1       20.43012702      18.38711432       2.04301270
       168    1       22.47313973      16.34410162       2.04301270
       169    1       24.51615243      16.34410162       0.00000000
       170    1       26.55916513      18.38711432       0.00000000
       171    1       24.51615243      18.38711432       2.04301270
       172    1       26.55916513      16.34410162       2.04301270
       173    1       28.60217783      16.34410162       0.00000000
       174    1       30.64519054      18.38711432       0.00000000
       175    1       28.60217783      18.38711432       2.04301270
       176    1       30.64519054      16.34410162       2.04301270
       177    1       32.68820324      16.34410162       0.00000000
       178    1       34.73121594      18.38711432       0.00000000
       179    1       32.68820324      18.38711432       2.04301270
       180    1       34.73121594      16.34410162       2.04301270
       181    1        0.00000000      20.43012702       0.00000000
       182    1        2.04301270      22.47313973       0.00000000
       183    1        0.00000000      22.47313973       2.04301270
       184    1        2.04301270      20.43012702       2.04301270
       185    1        4.08602540      20.43012702       0.00000000
       186    1        6.12903811      22.47313973       0.00000000
       187    1        4.08602540      22.47313973       2.04301270
       188    1        6.12903811      20.43012702       2.04301270
       189    1        8.17205081      20.43012702       0.00000000
       190    1       10.21506351      22.47313973       0.00000000
       191    1        8.17205081      22.47313973       2.04301270
       192    1       10.21506351      20.43012702       2.04301270
       193    1       12.25807621      20.43012702       0.00000000
       194    1       14.30108892      22.47313973       0.00000000
       195    1       12.25807621      22.47313973       2.04301270
       196    1       14.30108892      20.43012702       2.04301270
       197    1       16.34410162      20.43012702       0.00000000
       198    1       18.38711432      22.47313973       0.00000000
       199    1       16.34410162      22.47313973       2.04301270
       200    1       18.38711432      20.43012702       2.04301270
       201    1       20.43012702      20.43012702       0.00000000
       202    1       22.47313973      22.47313973       0.00000000
       203    1       20.43012702      22.47313973       2.04301270
       204    1       22.47313973      20.43012702       2.04301270
       205    1       24.51615243      20.43012702       0.00000000
       206    1       26.55916513      22.47313973       0.00000000
       207    1       24.51615243      22.47313973       2.04301270
       208    1       26.55916513      20.43012702       2.04301270
       209    1       28.60217783      20.43012702       0.00000000
       210    1       30.64519054      22.47313973       0.00000000
       211    1       28.60217783      22.47313973       2.04301270
       212    1       30.64519054      20.43012702       2.04301270
       213    1       32.68820324      20.43012702       0.00000000
       214    1       34.73121594      22.47313973       0.00000000
       215    1       32.68820324      22.47313973       2.04301270
       216    1       34.73121594      20.43012702       2.04301270
       217    1        0.00000000      24.51615243       0.00000000
       218    1        2.04301270      26.55916513       0.00000000
       219    1        0.00000000      26.55916513       2.04301270
       220    1        2.04301270      24.51615243       2.04301270
       221    1        4.08602540      24.51615243       0.00000000
       222    1        6.12903811      26.55916513       0.00000000
       223    1        4.08602540      26.55916513       2.04301270
       224    1        6.12903811      24.51615243       2.04301270
       225    1        8.17205081      24.51615243       0.00000000
       226    1       10.21506351      26.55916513       0.00000000
       227    1        8.17205081      26.55916513       2.04301270
       228    1       10.21506351      24.51615243       2.04301270
       229    1       12.25807621      24.51615243       0.00000000
       230    1       14.30108892      26.55916513       0.00000000
       231    1       12.25807621      26.55916513       2.04301270
       232    1       14.30108892      24.51615243       2.04301270
       233    1       16.34410162      24.51615243       0.00000000
       234    1       18.38711432      26.55916513       0.00000000
       235    1       16.34410162      26.55916513       2.04301270
       236    1       18.38711432      24.51615243       2.04301270
       237    1       20.43012702      24.51615243       0.00000000
       238    1       22.47313973      26.55916513       0.00000000
       239    1       20.43012702      26.55916513       2.04301270
       240    1       22.47313973      24.51615243       2.04301270
       241    1       24.51615243      24.51615243       0.00000000
       242    1       26.55916513      26.55916513       0.00000000
       243    1       24.51615243      26.55916513       2.04301270
       244    1       26.55916513      24.51615243       2.04301270
       245    1       28.60217783      24.51615243       0.00000000
       246    1       30.64519054      26.55916513       0.00000000
       247    1       28.60217783      26.55916513       2.04301270
       248    1       30.64519054      24.51615243       2.04301270
       249    1       32.68820324      24.51615243       0.00000000
       250    1       34.73121594      26.55916513       0.00000000
       251    1       32.68820324      26.55916513       2.04301270
       252    1       34.73121594      24.51615243       2.04301270
       253    1        0.00000000      28.60217783       0.00000000
       254    1        2.04301270      30.64519054       0.00000000
       255    1        0.00000000      30.64519054       2.04301270
       256    1        2.04301270      28.60217783       2.04301270
       257    1        4.08602540      28.60217783       0.00000000
       258    1        6.12903811      30.64519054       0.00000000
       259    1        4.08602540      30.64519054       2.04301270
       260    1        6.12903811      28.60217783       2.04301270
       261    1        8.17205081      28.60217783       0.00000000
       262    1       10.21506351      30.64519054       0.00000000
       263    1        8.17205081      30.64519054       2.04301270
       264    1       10.21506351      28.60217783       2.04301270
       265    1       12.25807621      28.60217783       0.00000000
       266    1       14.30108892      30.64519054       0.00000000
       267    1       12.25807621      30.64519054       2.04301270
       268    1       14.30108892      28.60217783       2.04301270
       269    1       16.34410162      28.60217783       0.00000000
       270    1       18.38711432      30.64519054       0.00000000
       271    1       16.34410162      30.64519054       2.04301270
       272    1       18.38711432      28.60217783       2.04301270
       273    1       20.43012702      28.60217783       0.00000000
       274    1       22.47313973      30.64519054       0.00000000
       275    1       20.43012702      30.64519054       2.04301270
       276    1       22.47313973      28.60217783       2.04301270
       277    1       24.51615243      28.60217783       0.00000000
       278    1       26.55916513      30.64519054       0.00000000
       279    1       24.51615243      30.64519054       2.04301270
       280    1       26.55916513      28.60217783       2.04301270
       281    1       28.60217783      28.60217783       0.00000000
       282    1       30.64519054      30.64519054       0.00000000
       283    1       28.60217783      30.64519054       2.04301270
       284    1       30.64519054      28.60217783       2.04301270
       285    1       32.68820324      28.60217783       0.00000000
       286    1       34.73121594      30.64519054       0.00000000
       287    1       32.68820324      30.64519054       2.04301270
       288    1       34.73121594      28.60217783       2.04301270
       289    1        0.00000000      32.68820324       0.00000000
       290    1        2.04301270      34.73121594       0.00000000
       291    1        0.00000000      34.73121594       2.04301270
       292    1        2.04301270      32.68820324       2.04301270
       293    1        4.08602540      32.68820324       0.00000000
       294    1        6.12903811      34.73121594       0.00000000
       295    1        4.08602540      34.73121594       2.04301270
       296    1        6.12903811      32.68820324       2.04301270
       297    1        8.17205081      32.68820324       0.00000000
       298    1       10.21506351      34.73121594       0.00000000
       299    1        8.17205081      34.73121594       2.04301270
       300    1       10.21506351      32.68820324       2.04301270
       301    1       12.25807621      32.68820324       0.00000000
       302    1       14.30108892      34.73121594       0.00000000
       303    1       12.25807621      34.73121594       2.04301270
       304    1       14.30108892      32.68820324       2.04301270
       305    1       16.34410162      32.68820324       0.00000000
       306    1       18.38711432      34.73121594       0.00000000
       307    1       16.34410162      34.73121594       2.04301270
       308    1       18.38711432      32.68820324       2.04301270
       309    1       20.43012702      32.68820324       0.00000000
       310    1       22.47313973      34.73121594       0.00000000
       311    1       20.43012702      34.73121594       2.04301270
       312    1       22.47313973      32.68820324       2.04301270
       313    1       24.51615243      32.68820324       0.00000000
       314    1       26.55916513      34.73121594       0.00000000
       315    1       24.51615243      34.73121594       2.04301270
       316    1       26.55916513      32.68820324       2.04301270
       317    1       28.60217783      32.68820324       0.00000000
       318    1       30.64519054      34.73121594       0.00000000
       319    1       28.60217783      34.73121594       2.04301270
       320    1       30.64519054      32.68820324       2.04301270
       321    1       32.68820324      32.68820324       0.00000000
       322    1       34.73121594      34.73121594       0.00000000
       323    1       32.68820324      34.73121594       2.04301270
       324    1       34.73121594      32.68820324       2.04301270
       325    1        0.00000000       0.00000000       4.08602540
       326    1        2.04301270       2.04301270       4.08602540
       327    1        0.00000000       2.04301270       6.12903811
       328    1        2.04301270       0.00000000       6.12903811
       329    1        4.08602540       0.00000000       4.08602540
       330    1        6.12903811       2.04301270       4.08602540
       331    1        4.08602540       2.04301270       6.12903811
       332    1        6.12903811       0.00000000       6.12903811
       333    1        8.17205081       0.00000000       4.08602540
       334    1       10.21506351       2.04301270       4.08602540
       335    1        8.17205081       2.04301270       6.12903811
       336    1       10.21506351       0.00000000       6.12903811
       337    1       12.25807621       0.00000000       4.08602540
       338    1       14.30108892       2.04301270       4.08602540
       339    1       12.25807621       2.04301270       6.12903811
       340    1       14.30108892       0.00000000       6.12903811
       341    1       16.34410162       0.00000000       4.08602540
       342    1       18.38711432       2.04301270       4.08602540
       343    1       16.34410162       2.04301270       6.12903811
       344    1       18.38711432       0.00000000       6.12903811
       345    1       20.43012702       0.00000000       4.08602540
       346    1       22.47313973       2.04301270       4.08602540
       347    1       20.43012702       2.04301270       6.12903811
       348    1       22.47313973       0.00000000       6.12903811
       349    1       24.51615243       0.00000000       4.08602540
       350    1       26.55916513       2.04301270       4.08602540
       351    1       24.51615243       2.04301270       6.12903811
       352    1       26.55916513       0.00000000       6.12903811
       353    1       28.60217783       0.00000000       4.08602540
       354    1       30.64519054       2.04301270       4.08602540
       355    1       28.60217783       2.04301270       6.12903811
       356    1       30.64519054       0.00000000       6.12903811
       357    1       32.68820324       0.00000000       4.08602540
       358    1       34.73121594       2.04301270       4.08602540
       359    1       32.68820324       2.04301270       6.12903811
       360    1       34.73121594       0.00000000       6.12903811
       361    1        0.00000000       4.08602540       4.08602540
       362    1        2.04301270       6.12903811       4.08602540
       363    1        0.00000000       6.12903811       6.12903811
       364    1        2.04301270       4.08602540       6.12903811
       365    1        4.08602540       4.08602540       4.08602540
       366    1        6.12903811       6.12903811       4.08602540
       367    1        4.08602540       6.12903811       6.12903811
       368    1        6.12903811       4.08602540       6.12903811
       369    1        8.17205081       4.08602540       4.08602540
       370    1       10.21506351       6.12903811       4.08602540
       371    1        8.17205081       6.12903811       6.12903811
       372    1       10.21506351       4.08602540       6.12903811
       373    1       12.25807621       4.08602540       4.08602540
       374    1       14.30108892       6.12903811       4.08602540
       375    1       12.25807621       6.12903811       6.12903811
       376    1       14.30108892       4.08602540       6.12903811
       377    1       16.34410162       4.08602540       4.08602540
       378    1       18.38711432       6.12903811       4.08602540
       379    1       16.34410162       6.12903811       6.12903811
       380    1       18.38711432       4.08602540       6.12903811
       381    1       20.43012702       4.08602540       4.08602540
       382    1       22.47313973       6.12903811       4.08602540
       383    1       20.43012702       6.12903811       6.12903811
       384    1       22.47313973       4.08602540       6.12903811
       385    1       24.51615243       4.08602540       4.08602540
       386    1       26.55916513       6.12903811       4.08602540
       387    1       24.51615243       6.12903811       6.12903811
       388    1       26.55916513       4.08602540       6.12903811
       389    1       28.60217783       4.08602540       4.08602540
       390    1       30.64519054       6.12903811       4.08602540
       391    1       28.60217783       6.12903811       6.12903811
       392    1       30.64519054       4.08602540       6.12903811
       393    1       32.68820324       4.08602540       4.08602540
       394    1       34.73121594       6.12903811       4.08602540
       395    1       32.68820324       6.12903811       6.12903811
       396    1       34.73121594       4.08602540       6.12903811
       397    1        0.00000000       8.17205081       4.08602540
       398    1        2.04301270      10.21506351       4.08602540
       399    1        0.00000000      10.21506351       6.12903811
       400    1        2.04301270       8.17205081       6.12903811
       401    1        4.08602540       8.17205081       4.08602540
       402    1        6.12903811      10.21506351       4.08602540
       403    1        4.08602540      10.21506351       6.12903811
       404    1        6.12903811       8.17205081       6.12903811
       405    1        8.17205081       8.17205081       4.08602540
       406    1       10.21506351      10.21506351       4.08602540
       407    1        8.17205081      10.21506351       6.12903811
       408    1       10.21506351       8.17205081       6.12903811
       409    1       12.25807621       8.17205081       4.08602540
       410    1       14.30108892      10.21506351       4.08602540
       411    1       12.25807621      10.21506351       6.12903811
       412    1       14.30108892       8.17205081       6.12903811
       413    1       16.34410162       8.17205081       4.08602540
       414    1       18.38711432      10.21506351       4.08602540
       415    1       16.34410162      10.21506351       6.12903811
       416    1       18.38711432       8.17205081       6.12903811
       417    1       20.43012702       8.17205081       4.08602540
       418    1       22.47313973      10.21506351       4.08602540
       419    1       20.43012702      10.21506351       6.12903811
       420    1       22.47313973       8.17205081       6.12903811
       421    1       24.51615243       8.17205081       4.08602540
       422    1       26.55916513      10.21506351       4.08602540
       423    1       24.51615243      10.21506351       6.12903811
       424    1       26.55916513       8.17205081       6.12903811
       425    1       28.60217783       8.17205081       4.08602540
       426    1       30.64519054      10.21506351       4.08602540
       427    1       28.60217783      10.21506351       6.12903811
       428    1       30.64519054       8.17205081       6.12903811
       429    1       32.68820324       8.17205081       4.08602540
       430    1       34.73121594      10.21506351       4.08602540
       431    1       32.68820324      10.21506351       6.12903811
       432    1       34.73121594       8.17205081       6.12903811
       433    1        0.00000000      12.25807621       4.08602540
       434    1        2.04301270      14.30108892       4.08602540
       435    1        0.00000000      14.30108892       6.12903811
       436    1        2.04301270      12.25807621       6.12903811